
 Working directory              : /SCR1/adam/molpro.IMMgPZf1YG/
 Global scratch directory       : /SCR1/adam/molpro.IMMgPZf1YG/
 Wavefunction directory         : /home/linux1_i1/adam/wfu/
 Main file repository           : /SCR1/adam/molpro.IMMgPZf1YG/

 id        : koehnrobert

 Nodes     nprocs
 linux3       1
 GA implementation: MPI file
 GA implementation (serial work in mppx): MPI file

 Using customized tuning parameters: mindgm=1; mindgv=20; mindgc=4; mindgr=1; noblas=0; minvec=7
 default implementation of scratch files=df  


 Variables initialized (1050), CPU time= 0.01 sec
 memory,500,m
 
 gprint,orbital,civector
 
                                                                            ! avoid writing integrals in later calls to ci program:
 gdirect
 
 basis=def2-SVP
 charge=-1
 
 geometry={
 Rh 0 0 0.1
 Cl 2 0 0
 Cl 0 2 0
 Cl -2 0 0
 Cl 0 -2 0
 }
 
 {df-rhf;wf,,sym=4,spin=4;
   avas;center,1,4d;
 }
 
 {df-casscf,second-order;
   wf,,sym=1,spin=2; state,4;
   wf,,sym=2,spin=2; state,2;
   wf,,sym=3,spin=2; state,2;
   wf,,sym=4,spin=2; state,2;
   save,cirec=5100.2;
 }
 
 {ci;
   core,17,11,11,5;
   hlsmat,als,5100.2,5200.2,5300.2,5400.2,aniso;
   expec,lop,Rh;
   print,HLS=1,VLS=0;
   dump,hdf5,simple_example_soci.hdf5;
 }
 
 {single_aniso,mltp=[3]}
 Commands initialized (837), CPU time= 0.01 sec, 720 directives.
 Default parameters read. Elapsed time= 0.21 sec

 Checking input...
 Passed
1


                                         ***  PROGRAM SYSTEM MOLPRO  ***
                                       Copyright, TTI GmbH Stuttgart, 2015
                                  Version 2024.4 linked Wed Dec 11 16:54:04 2024


 **********************************************************************************************************************************
 LABEL *                                                                                                                                                                 
  (24 PROC) 64 bit serial version                                                        DATE: 11-Dec-24          TIME: 16:54:20  
 **********************************************************************************************************************************

 SHA1:             5757691c7c7c4eec8c8718c152443123fe90ad15
 **********************************************************************************************************************************

 Memory per process:       500 MW
 Total memory per node:    500 MW

 GA preallocation disabled
 GA check disabled

 Variable memory set to 500.0 MW


 SETTING BASIS          =    DEF2-SVP
 CHARGE          =      -1.00000000                                  

 Geometry recognized as XYZ



 Recomputing integrals since basis changed


 Using spherical harmonics

 Library entry Rh   ECP ECP28MWB                 selected for group  1
 Library entry RH     S def2-SVP             selected for orbital group  1
 Library entry RH     P def2-SVP             selected for orbital group  1
 Library entry RH     D def2-SVP             selected for orbital group  1
 Library entry RH     F def2-SVP             selected for orbital group  1
 Library entry CL     S def2-SVP             selected for orbital group  2
 Library entry CL     P def2-SVP             selected for orbital group  2
 Library entry CL     D def2-SVP             selected for orbital group  2


 PROGRAM * SEWARD (Integral evaluation for generally contracted gaussian basis sets)     Author: Roland Lindh, 1990

 Geometry written to block  1 of record 700


 Point group  C2v 



 ATOMIC COORDINATES

 NR  ATOM    CHARGE       X              Y              Z

   1  RH     17.00    0.000000000    0.000000000    0.188972612
   2  CL     17.00    3.779452249    0.000000000    0.000000000
   3  CL     17.00   -3.779452249    0.000000000    0.000000000
   4  CL     17.00    0.000000000    3.779452249    0.000000000
   5  CL     17.00    0.000000000   -3.779452249    0.000000000

 Bond lengths in Bohr (Angstrom)

 1-2  3.784173616  1-3  3.784173616  1-4  3.784173616  1-5  3.784173616  2-4  5.344952629
     ( 2.002498439)     ( 2.002498439)     ( 2.002498439)     ( 2.002498439)     ( 2.828427125)

 2-5  5.344952629  3-4  5.344952629  3-5  5.344952629
     ( 2.828427125)     ( 2.828427125)     ( 2.828427125)

 Bond angles

  1-2-4   45.07144120   1-2-5   45.07144120   1-3-4   45.07144120   1-3-5   45.07144120

  1-4-2   45.07144120   1-4-3   45.07144120   1-5-2   45.07144120   1-5-3   45.07144120

  2-1-3  174.27518955   2-1-4   89.85711761   2-1-5   89.85711761   2-4-3   90.00000000

  2-5-3   90.00000000   3-1-4   89.85711761   3-1-5   89.85711761   4-1-5  174.27518955

  4-2-5   90.00000000   4-3-5   90.00000000

 NUCLEAR CHARGE:                   85
 NUMBER OF PRIMITIVE AOS:         213
 NUMBER OF SYMMETRY AOS:          201
 NUMBER OF CONTRACTIONS:          103   (   40A1  +   25B1  +   25B2  +   13A2  )
 NUMBER OF INNER CORE ORBITALS:     4   (    2A1  +    1B1  +    1B2  +    0A2  )
 NUMBER OF OUTER CORE ORBITALS:    20   (    8A1  +    5B1  +    5B2  +    2A2  )
 NUMBER OF VALENCE ORBITALS:       22   (    9A1  +    5B1  +    5B2  +    3A2  )


 NUCLEAR REPULSION ENERGY  598.22773082


 Eigenvalues of metric

         1 0.278E-02 0.328E-02 0.311E-01 0.628E-01 0.108E+00 0.202E+00 0.237E+00 0.245E+00
         2 0.203E-01 0.922E-01 0.163E+00 0.213E+00 0.348E+00 0.391E+00 0.475E+00 0.687E+00
         3 0.203E-01 0.922E-01 0.163E+00 0.213E+00 0.348E+00 0.391E+00 0.475E+00 0.687E+00
         4 0.822E-01 0.234E+00 0.438E+00 0.816E+00 0.820E+00 0.971E+00 0.986E+00 0.997E+00


 OPERATOR DM      FOR CENTER  0  COORDINATES:    0.000000    0.000000    0.000000


 **********************************************************************************************************************************
 DATASETS  * FILE   NREC   LENGTH (MB)   RECORD NAMES
              1      19       29.05       500      610      700      900      950      970     1000      129      960     1100   
                                          VAR    BASINP    GEOM    SYMINP    ZMAT    AOBASIS   BASIS     P2S    ABASIS      S 
                                         1400     1410     1420     1200     1210     1080     1600     1650     1700   
                                           T        V       ECP      H0       H01     AOSYM     SMH    MOLCAS    OPER   

 PROGRAMS   *        TOTAL       INT
 CPU TIMES  *         0.35      0.23
 REAL TIME  *         1.57 SEC
 DISK USED  *        29.46 MB
 **********************************************************************************************************************************


 Program * Restricted Hartree-Fock


 Generating basis DEF2-SVP-JKFIT
  Atom=RH       basis=def2-SVP/JKFIT
  Atom=CL       basis=def2-SVP/JKFIT
 Number of basis functions:     705

 Coulomb and exchange fitting
 Thresholds for fitting:       THRAO_COUL= 1.0D-15    THRAO_EXCH= 1.0D-13    THRMO= 1.0D-12    THRPROD= 1.0D-12    THRASM= 1.0D-12
                               THR2HLF=    1.0D-12

 Basis set DEF2-SVP-JKFIT loaded. Number of basis functions: 705

 Number of basis functions:      76

 Orbital guess generated from atomic densities.

 Initial alpha occupancy:  18  11  11   5
 Initial beta  occupancy:  16  10  10   5

 NELEC=   86   SYM=4   MS2= 4   THRE=1.0D-08   THRD=3.2D-06   THRG=3.2D-06  HFMA2=F  DIIS_START=2   DIIS_MAX=10   DIIS_INCORE=F

 Level shifts:    0.00 (CLOSED)    0.00 (OPEN)    0.30 (GAP_MIN)

 ITER           ETOT              DE          GRAD        DDIFF     DIIS  NEXP   TIME(IT)  TIME(TOT)  DIAG
   1    -1946.81888200   -1946.81888200     0.00D+00     0.32D+00     0     0       0.44      2.00    start
   2    -1946.86690732      -0.04802532     0.10D-01     0.32D-01     1     0       0.45      2.45    diag2
   3    -1946.92746059      -0.06055327     0.74D-02     0.13D-01     2     0       0.44      2.89    diag2
   4    -1946.93596826      -0.00850767     0.24D-02     0.58D-02     3     0       0.44      3.33    diag2
   5    -1946.93918488      -0.00321662     0.97D-03     0.37D-02     4     0       0.44      3.77    diag2
   6    -1946.93974437      -0.00055949     0.38D-03     0.13D-02     5     0       0.45      4.22    diag2
   7    -1946.93984323      -0.00009886     0.13D-03     0.51D-03     6     0       0.44      4.66    diag2
   8    -1946.93986425      -0.00002102     0.55D-04     0.24D-03     7     0       0.45      5.11    fixocc
   9    -1946.93986911      -0.00000486     0.23D-04     0.14D-03     8     0       0.44      5.55    diag2
  10    -1946.93986940      -0.00000029     0.53D-05     0.33D-04     9     0       0.45      6.00    diag2/orth
  11    -1946.93986942      -0.00000002     0.16D-05     0.57D-05     9     0       0.46      6.46    diag2
  12    -1946.93986942      -0.00000000     0.66D-06     0.31D-05     9     0       0.44      6.90    diag2
  13    -1946.93986943      -0.00000000     0.24D-06     0.74D-06     0     0       0.45      7.35    diag

 Final alpha occupancy:  18  11  11   5
 Final beta  occupancy:  16  10  10   5

 !RHF STATE 1.4 Energy              -1946.939869425448
  RHF One-electron energy           -3944.284483284911
  RHF Two-electron energy            1399.116883044188
  RHF Kinetic energy                 1880.948151205039
  RHF Nuclear energy                  598.227730815275
  RHF Virial quotient                  -1.035084283518

 !RHF STATE 1.4 Dipole moment           0.00000000     0.00000000     0.16734190
 Dipole moment /Debye                   0.00000000     0.00000000     0.42534069

 ELECTRON ORBITALS
 =================

  Orbital  Occupation    Energy    Cen Mu Typ  Coefficients
    1.1     2.00000  -104.56805     2  1  s    0.70289    4  1  s   -0.70289
    2.1     2.00000  -104.56802     2  1  s    0.70289    4  1  s    0.70289
    3.1     2.00000   -10.34068     2  2  s    0.72704    4  2  s   -0.72704
    4.1     2.00000   -10.34067     2  2  s    0.72707    4  2  s    0.72707
    5.1     2.00000    -7.81521     2  1  px   0.69502    4  1  py  -0.69502
    6.1     2.00000    -7.81519     2  1  px   0.69511    4  1  py   0.69511
    7.1     2.00000    -7.81236     2  1  pz   0.69524    4  1  pz  -0.69524
    8.1     2.00000    -7.81236     2  1  pz   0.69524    4  1  pz   0.69524
    9.1     2.00000    -3.80269     1  1  s    0.58165    1  2  s    0.88429    1  3  s    0.48529
   10.1     2.00000    -2.39525     1  1  pz   0.99666
   11.1     2.00000    -0.94566     2  2  s   -0.35153    2  3  s    0.47128    4  2  s   -0.35153    4  3  s    0.47128
   12.1     2.00000    -0.90318     2  2  s   -0.36507    2  3  s    0.47799    2  4  s    0.28901    4  2  s    0.36507
                                    4  3  s   -0.47799    4  4  s   -0.28901
   13.1     2.00000    -0.46810     1  1  d2+  0.46894    2  2  px  -0.26316    2  3  px  -0.34717    4  2  py   0.26316
                                    4  3  py   0.34717
   14.1     2.00000    -0.42823     1  2  s    0.25464    1  4  s   -0.35663    1  1  d0   0.26169    2  2  px   0.28495
                                    2  3  px   0.31983    4  2  py   0.28495    4  3  py   0.31983
   15.1     2.00000    -0.32019     2  2  pz   0.28958    2  3  pz   0.40718    4  2  pz   0.28958    4  3  pz   0.40718
   16.1     2.00000    -0.24682     2  2  pz   0.32407    2  3  pz   0.49723    4  2  pz  -0.32407    4  3  pz  -0.49723
   17.1     1.00000    -0.46492     1  4  s    0.34284    1  1  d0   0.89064
   18.1     1.00000    -0.11243     1  1  d2+  0.92037    2  3  px   0.47347    4  3  py  -0.47347
    1.2     2.00000  -104.56806     2  1  s    0.99403
    2.2     2.00000   -10.34069     2  1  s   -0.31276    2  2  s    1.02812
    3.2     2.00000    -7.81520     2  1  px   0.98301
    4.2     2.00000    -7.81236     2  1  pz   0.98320
    5.2     2.00000    -7.81141     4  1  px   0.98395
    6.2     2.00000    -2.40661     1  1  px   0.98733
    7.2     2.00000    -0.88134     2  2  s   -0.53173    2  3  s    0.70155    2  4  s    0.42480
    8.2     2.00000    -0.38136     1  1  d1+  0.38700    2  2  pz   0.36649    2  3  pz   0.49464
    9.2     2.00000    -0.32933     2  2  px   0.32528    2  3  px   0.44155    4  2  px  -0.28212    4  3  px  -0.38583
   10.2     2.00000    -0.24897     2  2  px   0.31113    2  3  px   0.46095    4  2  px   0.36219    4  3  px   0.53803
   11.2     1.00000    -0.37308     1  1  d1+  0.89404    2  3  pz  -0.40201
    1.3     2.00000  -104.56806     4  1  s    0.99403
    2.3     2.00000   -10.34069     4  1  s   -0.31276    4  2  s    1.02812
    3.3     2.00000    -7.81520     4  1  py   0.98301
    4.3     2.00000    -7.81236     4  1  pz   0.98320
    5.3     2.00000    -7.81141     2  1  py   0.98395
    6.3     2.00000    -2.40661     1  1  py   0.98733
    7.3     2.00000    -0.88134     4  2  s   -0.53173    4  3  s    0.70155    4  4  s    0.42480
    8.3     2.00000    -0.38136     1  1  d1-  0.38700    4  2  pz   0.36649    4  3  pz   0.49464
    9.3     2.00000    -0.32933     2  2  py  -0.28212    2  3  py  -0.38583    4  2  py   0.32528    4  3  py   0.44155
   10.3     2.00000    -0.24897     2  2  py   0.36219    2  3  py   0.53803    4  2  py   0.31113    4  3  py   0.46095
   11.3     1.00000    -0.37308     1  1  d1-  0.89404    4  3  pz  -0.40201
    1.4     2.00000    -7.81142     2  1  py   0.69571    4  1  px  -0.69571
    2.4     2.00000    -7.81140     2  1  py   0.69582    4  1  px   0.69582
    3.4     2.00000    -0.52408     1  1  d2-  0.72079
    4.4     2.00000    -0.23900     1  1  d2-  0.64555    2  2  py  -0.25791    2  3  py  -0.42892    4  2  px  -0.25791
                                    4  3  px  -0.42892
    5.4     2.00000    -0.20440     2  2  py   0.35619    2  3  py   0.53022    4  2  px  -0.35619    4  3  px  -0.53022


 HOMO     18.1    -0.112427 =      -3.0593eV
 LUMO     19.1     0.237939 =       6.4747eV
 LUMO-HOMO         0.350366 =       9.5339eV

 Orbitals saved in record  2100.2

 Automated selection of molecular active space
 =============================================

 Center  Target atomic orbitals:
   1      4d0   4d2-  4d1+  4d2+  4d1-  

 Closed-shell and open-shell orbitals are projected together
 Virtual orbitals are projected
 Core orbitals are not projected

 Threshold for active space selection:  0.30

 Generating basis MINAO-AUTO-PP
  Atom=RH       basis=MINAO-PP
  Atom=CL       basis=MINAO
 Number of basis functions:      46


 Number of target functions:              5   (   2   1   1   1 )

 Number of core orbitals:                24   (  10   6   6   2 )
 Number of closed-shell orbitals:        40   (  16  10  10   4 )
 Number of active orbitals:               5   (   2   1   1   1 )
 Number of occupied orbitals:            45   (  18  11  11   5 )
 Number of virtual orbitals:             58   (  22  14  14   8 )

 Number of active electrons:              6

  Orbital    Energy    Cen Mu Typ  Coefficients
    1.1  -104.56805     2  1  s    0.70289    4  1  s   -0.70289
    2.1  -104.56802     2  1  s    0.70289    4  1  s    0.70289
    3.1   -10.34068     2  2  s    0.72704    4  2  s   -0.72704
    4.1   -10.34067     2  2  s    0.72707    4  2  s    0.72707
    5.1    -7.81521     2  1  px   0.69502    4  1  py  -0.69502
    6.1    -7.81519     2  1  px   0.69511    4  1  py   0.69511
    7.1    -7.81236     2  1  pz   0.69524    4  1  pz  -0.69524
    8.1    -7.81236     2  1  pz   0.69524    4  1  pz   0.69524
    9.1    -3.80269     1  1  s    0.58165    1  2  s    0.88429    1  3  s    0.48529
   10.1    -2.39525     1  1  pz   0.99666
   11.1    -0.91271     2  2  s   -0.35339    2  3  s    0.47194    4  2  s   -0.35339    4  3  s    0.47194
   12.1    -0.77271     1  1  d2+ -0.27037    2  2  s   -0.37878    2  3  s    0.49814    2  4  s    0.34478
                        4  2  s    0.37878    4  3  s   -0.49814    4  4  s   -0.34478
   13.1    -0.39792     1  2  s    0.32312    1  4  s   -0.45707    2  2  px   0.29336    2  3  px   0.34199
                        4  2  py   0.29336    4  3  py   0.34199
   14.1    -0.34376     2  2  pz   0.29157    2  3  pz   0.40958    4  2  pz   0.29157    4  3  pz   0.40958
   15.1    -0.27509     2  2  pz   0.32401    2  3  pz   0.49705    4  2  pz  -0.32401    4  3  pz  -0.49705
   16.1    -0.12397     1  1  d2+  0.41855    2  2  px   0.33518    2  3  px   0.58734    4  2  py  -0.33518
                        4  3  py  -0.58734
   17.1    -0.66237     1  1  d2+  0.93150
   18.1    -0.56915     1  1  d0   0.91885
    1.2  -104.56806     2  1  s    0.99403
    2.2   -10.34069     2  1  s   -0.31276    2  2  s    1.02812
    3.2    -7.81520     2  1  px   0.98301
    4.2    -7.81236     2  1  pz   0.98320
    5.2    -7.81141     4  1  px   0.98395
    6.2    -2.40661     1  1  px   0.98733
    7.2    -0.89658     2  2  s   -0.53179    2  3  s    0.70147    2  4  s    0.42583
    8.2    -0.34503     2  2  px   0.36671    2  3  px   0.50029    4  2  px  -0.25045    4  3  px  -0.33785
    9.2    -0.26778     2  2  pz   0.42237    2  3  pz   0.61617
   10.2    -0.25846     2  2  px  -0.27365    2  3  px  -0.40723    4  2  px  -0.35789    4  3  px  -0.52951
   11.2    -0.54079     1  1  d1+  0.94516
    1.3  -104.56806     4  1  s    0.99403
    2.3   -10.34069     4  1  s   -0.31276    4  2  s    1.02812
    3.3    -7.81520     4  1  py   0.98301
    4.3    -7.81236     4  1  pz   0.98320
    5.3    -7.81141     2  1  py   0.98395
    6.3    -2.40661     1  1  py   0.98733
    7.3    -0.89658     4  2  s   -0.53179    4  3  s    0.70147    4  4  s    0.42583
    8.3    -0.34503     2  2  py  -0.25045    2  3  py  -0.33785    4  2  py   0.36671    4  3  py   0.50029
    9.3    -0.26778     4  2  pz   0.42237    4  3  pz   0.61617
   10.3    -0.25846     2  2  py   0.35789    2  3  py   0.52951    4  2  py   0.27365    4  3  py   0.40723
   11.3    -0.54079     1  1  d1-  0.94516
    1.4    -7.81142     2  1  py   0.69571    4  1  px  -0.69571
    2.4    -7.81140     2  1  py   0.69582    4  1  px   0.69582
    3.4    -0.29842     1  1  d2-  0.27105    2  2  py  -0.30671    2  3  py  -0.46118    4  2  px  -0.30671
                        4  3  px  -0.46118
    4.4    -0.20932     2  2  py   0.35619    2  3  py   0.53022    4  2  px  -0.35619    4  3  px  -0.53022
    5.4    -0.50960     1  1  d2-  0.92888


 **********************************************************************************************************************************
 DATASETS  * FILE   NREC   LENGTH (MB)   RECORD NAMES
              1      19       29.05       500      610      700      900      950      970     1000      129      960     1100   
                                          VAR    BASINP    GEOM    SYMINP    ZMAT    AOBASIS   BASIS     P2S    ABASIS      S 
                                         1400     1410     1420     1200     1210     1080     1600     1650     1700   
                                           T        V       ECP      H0       H01     AOSYM     SMH    MOLCAS    OPER   

              2       4        0.72       700     1000      520     2100   
                                         GEOM     BASIS   MCVARS     RHF  

              4       2        0.09      8000     8001   

 PROGRAMS   *        TOTAL    DF-RHF       INT
 CPU TIMES  *         7.74      7.39      0.23
 REAL TIME  *        18.69 SEC
 DISK USED  *        55.25 MB
 **********************************************************************************************************************************

 PROGRAM * MULTI (Direct Multiconfiguration SCF)       Authors: P.J. Knowles, H.-J. Werner (1984)
                                                                D.A. Kreplin, P.J. Knowles, H.-J. Werner (2019)

 Number of closed-shell orbitals:  40 (   16   10   10    4)
 Number of active  orbitals:        5 (    2    1    1    1)
 Number of external orbitals:      58 (   22   14   14    8)

 State symmetry 1

 Number of active electrons:   6    Spin symmetry=Triplet   Space symmetry=1
 Number of states:             4
 Number of CSFs:               9   (11 determinants, 50 intermediate states)

 State symmetry 2

 Number of active electrons:   6    Spin symmetry=Triplet   Space symmetry=2
 Number of states:             2
 Number of CSFs:              12   (13 determinants, 50 intermediate states)

 State symmetry 3

 Number of active electrons:   6    Spin symmetry=Triplet   Space symmetry=3
 Number of states:             2
 Number of CSFs:              12   (13 determinants, 50 intermediate states)

 State symmetry 4

 Number of active electrons:   6    Spin symmetry=Triplet   Space symmetry=4
 Number of states:             2
 Number of CSFs:              12   (13 determinants, 50 intermediate states)

 Molecular orbitals read from record     2100.2  Type=RHF/AVAS  

 Wavefunction dump at record             2140.2

 Convergence thresholds  0.10E-04 (gradient)  0.10E-05 (energy)

 Weight factors for state symmetry  1:    0.10000   0.10000   0.10000   0.10000
 Weight factors for state symmetry  2:    0.10000   0.10000
 Weight factors for state symmetry  3:    0.10000   0.10000
 Weight factors for state symmetry  4:    0.10000   0.10000


 Generating basis DEF2-SVP-JKFIT
 Basis set DEF2-SVP-JKFIT loaded.        Number of basis functions:   705
 
 Number of orbital rotations:  800  ( 56 closed/active, 664 closed/virtual, 0 active/active, 80 active/virtual )
 Total number of variables:    922
 
 Second-order MCSCF: L-BFGS accelerated
 
 ITER  MIC  NCI  NEG     ENERGY(VAR)    ENERGY(PROJ) ENERGY CHANGE       GRAD(0)  GRAD(ORB)   GRAD(CI)      STEP      TIME
   1   14   32   16  -1946.16379634   -1946.63483547   -0.47103913    0.45758451 0.00094725 0.00000000  0.53E+00      5.44
   2   13   36    0  -1946.94885992   -1947.01238777   -0.06352785    0.41730900 0.00009589 0.00000000  0.18E+00     12.09
   3   15   36    0  -1947.01604143   -1947.01685074   -0.00080931    0.03953934 0.00000794 0.00000000  0.24E-01     17.92
   4   14   32    0  -1947.01685741   -1947.01685755   -0.00000014    0.00050013 0.00000000 0.00000000  0.32E-03     25.09
   5    5   12    0  -1947.01685755   -1947.01685755    0.00000000    0.00000008 0.00000000 0.00000000  0.52E-07     29.33

 CONVERGENCE REACHED!  Final gradient:    0.00000000 ( 0.14E-10)
                       Final energy:  -1947.01685755
 
 Results for state 1.1
 =====================
 !MCSCF STATE 1.1 Energy                     -1946.924808404274
 Nuclear energy                                598.22773082
 Kinetic energy                               1880.76866537
 One electron energy                         -3943.85474238
 Two electron energy                          1398.70220316
 Virial ratio                                    2.03517506
 
 !MCSCF STATE 1.1 Dipole moment                  0.00000000     0.00000000     0.08336648
 Dipole moment /Debye                            0.00000000     0.00000000     0.21189646
 
 Results for state 2.1
 =====================
 !MCSCF STATE 2.1 Energy                     -1946.906297542381
 Nuclear energy                                598.22773082
 Kinetic energy                               1880.79055522
 One electron energy                         -3943.87505347
 Two electron energy                          1398.74102511
 Virial ratio                                    2.03515317
 
 !MCSCF STATE 2.1 Dipole moment                  0.00000000     0.00000000     0.08673518
 Dipole moment /Debye                            0.00000000     0.00000000     0.22045883
 
 Results for state 3.1
 =====================
 !MCSCF STATE 3.1 Energy                     -1946.904740643318
 Nuclear energy                                598.22773082
 Kinetic energy                               1880.78108008
 One electron energy                         -3943.86910762
 Two electron energy                          1398.73663616
 Virial ratio                                    2.03515755
 
 !MCSCF STATE 3.1 Dipole moment                  0.00000000     0.00000000     0.08560141
 Dipole moment /Debye                            0.00000000     0.00000000     0.21757707
 
 Results for state 4.1
 =====================
 !MCSCF STATE 4.1 Energy                     -1946.879995672665
 Nuclear energy                                598.22773082
 Kinetic energy                               1881.25688163
 One electron energy                         -3944.01960535
 Two electron energy                          1398.91187887
 Virial ratio                                    2.03488259
 
 !MCSCF STATE 4.1 Dipole moment                  0.00000000     0.00000000     0.11815793
 Dipole moment /Debye                            0.00000000     0.00000000     0.30032751
 
 Results for state 1.2
 =====================
 !MCSCF STATE 1.2 Energy                     -1947.100842408019
 Nuclear energy                                598.22773082
 Kinetic energy                               1880.34847235
 One electron energy                         -3944.53041886
 Two electron energy                          1399.20184563
 Virial ratio                                    2.03550000
 
 !MCSCF STATE 1.2 Dipole moment                  0.00000000     0.00000000     0.05260955
 Dipole moment /Debye                            0.00000000     0.00000000     0.13372014
 
 Results for state 2.2
 =====================
 !MCSCF STATE 2.2 Energy                     -1947.073175445420
 Nuclear energy                                598.22773082
 Kinetic energy                               1880.43151299
 One electron energy                         -3944.61102490
 Two electron energy                          1399.31011864
 Virial ratio                                    2.03543956
 
 !MCSCF STATE 2.2 Dipole moment                  0.00000000     0.00000000     0.06678527
 Dipole moment /Debye                            0.00000000     0.00000000     0.16975123
 
 Results for state 1.3
 =====================
 !MCSCF STATE 1.3 Energy                     -1947.100842408019
 Nuclear energy                                598.22773082
 Kinetic energy                               1880.34847235
 One electron energy                         -3944.53041886
 Two electron energy                          1399.20184563
 Virial ratio                                    2.03550000
 
 !MCSCF STATE 1.3 Dipole moment                  0.00000000     0.00000000     0.05260955
 Dipole moment /Debye                            0.00000000     0.00000000     0.13372014
 
 Results for state 2.3
 =====================
 !MCSCF STATE 2.3 Energy                     -1947.073175445420
 Nuclear energy                                598.22773082
 Kinetic energy                               1880.43151299
 One electron energy                         -3944.61102490
 Two electron energy                          1399.31011864
 Virial ratio                                    2.03543956
 
 !MCSCF STATE 2.3 Dipole moment                  0.00000000     0.00000000     0.06678527
 Dipole moment /Debye                            0.00000000     0.00000000     0.16975123
 
 Results for state 1.4
 =====================
 !MCSCF STATE 1.4 Energy                     -1947.116977059393
 Nuclear energy                                598.22773082
 Kinetic energy                               1880.14049504
 One electron energy                         -3944.51485251
 Two electron energy                          1399.17014464
 Virial ratio                                    2.03562313
 
 !MCSCF STATE 1.4 Dipole moment                  0.00000000     0.00000000     0.04524912
 Dipole moment /Debye                            0.00000000     0.00000000     0.11501180
 
 Results for state 2.4
 =====================
 !MCSCF STATE 2.4 Energy                     -1947.087720513293
 Nuclear energy                                598.22773082
 Kinetic energy                               1880.63094585
 One electron energy                         -3944.62767212
 Two electron energy                          1399.31222079
 Virial ratio                                    2.03533749
 
 !MCSCF STATE 2.4 Dipole moment                  0.00000000     0.00000000     0.07335061
 Dipole moment /Debye                            0.00000000     0.00000000     0.18643864
 
 State-averaged charge density matrix saved on record 2140.2 (density set 1)
 
 Expectation values: (only non-zero values are shown)
 
 !MCSCF expec                       <1.1|DMZ|1.1>     0.083366483092 au =     0.211896464381 Debye
 !MCSCF expec                       <2.1|DMZ|2.1>     0.086735175617 au =     0.220458826726 Debye
 !MCSCF expec                       <3.1|DMZ|3.1>     0.085601406125 au =     0.217577072119 Debye
 !MCSCF expec                       <4.1|DMZ|4.1>     0.118157933137 au =     0.300327509831 Debye
 !MCSCF expec                       <1.2|DMZ|1.2>     0.052609552292 au =     0.133720143995 Debye
 !MCSCF expec                       <2.2|DMZ|2.2>     0.066785270413 au =     0.169751225533 Debye
 !MCSCF expec                       <1.3|DMZ|1.3>     0.052609552292 au =     0.133720143995 Debye
 !MCSCF expec                       <2.3|DMZ|2.3>     0.066785270413 au =     0.169751225533 Debye
 !MCSCF expec                       <1.4|DMZ|1.4>     0.045249122880 au =     0.115011798497 Debye
 !MCSCF expec                       <2.4|DMZ|2.4>     0.073350606084 au =     0.186438644321 Debye
 
 Transition values: (only non-zero values with the ground state are shown)
 
 !MCSCF trans                       <1.4|DMX|1.3>     0.023240883489 au =     0.059072433641 Debye
 !MCSCF trans                       <1.4|DMX|2.3>     0.013959900072 au =     0.035482526774 Debye
 
 !MCSCF trans                       <1.4|DMY|1.2>    -0.023240883489 au =    -0.059072433641 Debye
 !MCSCF trans                       <1.4|DMY|2.2>    -0.013959900072 au =    -0.035482526774 Debye
 
  NATURAL ORBITALS (STATE AVERAGED)
  =================================

  Orbital  Occupation    Energy    Cen Mu Typ  Coefficients
    1.1     2.00000  -104.57781     2  1  s    0.70289    4  1  s   -0.70289
    2.1     2.00000  -104.57779     2  1  s    0.70289    4  1  s    0.70289
    3.1     2.00000   -10.34972     2  2  s    0.72705    4  2  s   -0.72705
    4.1     2.00000   -10.34971     2  2  s    0.72708    4  2  s    0.72708
    5.1     2.00000    -7.82445     2  1  px   0.69458    4  1  py  -0.69458
    6.1     2.00000    -7.82443     2  1  px   0.69467    4  1  py   0.69467
    7.1     2.00000    -7.82106     2  1  pz   0.69495    4  1  pz  -0.69495
    8.1     2.00000    -7.82105     2  1  pz   0.69494    4  1  pz   0.69494
    9.1     2.00000    -3.77958     1  1  s    0.58150    1  2  s    0.88489    1  3  s    0.48234
   10.1     2.00000    -2.35832     1  1  pz   0.99319
   11.1     2.00000    -0.94908     2  2  s   -0.35324    2  3  s    0.47397    4  2  s   -0.35324    4  3  s    0.47397
   12.1     2.00000    -0.90806     2  2  s   -0.36435    2  3  s    0.47765    2  4  s    0.29567    4  2  s    0.36435
                                    4  3  s   -0.47765    4  4  s   -0.29567
   13.1     2.00000    -0.47013     1  1  d2+ -0.51736    2  2  px   0.25291    2  3  px   0.31967    4  2  py  -0.25291
                                    4  3  py  -0.31967
   14.1     2.00000    -0.42692     1  2  s    0.26357    1  4  s   -0.33301    2  2  px   0.28746    2  3  px   0.33014
                                    4  2  py   0.28746    4  3  py   0.33014
   15.1     2.00000    -0.32527     2  2  pz   0.29819    2  3  pz   0.41564    4  2  pz   0.29819    4  3  pz   0.41564
   16.1     2.00000    -0.25897     2  2  pz   0.32946    2  3  pz   0.49323    4  2  pz  -0.32946    4  3  pz  -0.49323
   17.1     1.58989    -0.23620     1  4  s    0.28945    1  1  d0   0.87859
   18.1     0.40611     0.24034     1  1  d2+  0.88969    2  3  px   0.48906    4  3  py  -0.48906
    1.2     2.00000  -104.57782     2  1  s    0.99403
    2.2     2.00000   -10.34972     2  1  s   -0.31276    2  2  s    1.02814
    3.2     2.00000    -7.82444     2  1  px   0.98239
    4.2     2.00000    -7.82105     2  1  pz   0.98277
    5.2     2.00000    -7.82088     4  1  px   0.98391
    6.2     2.00000    -2.39085     1  1  px   0.98787
    7.2     2.00000    -0.88553     2  2  s   -0.53297    2  3  s    0.70503    2  4  s    0.42398
    8.2     2.00000    -0.37528     1  1  d1+  0.34455    2  2  pz   0.38457    2  3  pz   0.52521
    9.2     2.00000    -0.33063     2  2  px   0.31826    2  3  px   0.42997    4  2  px  -0.28796    4  3  px  -0.39542
   10.2     2.00000    -0.24695     2  2  px  -0.31916    2  3  px  -0.47142    4  2  px  -0.35688    4  3  px  -0.52969
   11.2     1.38677    -0.15512     1  1  d1+  0.89941    2  3  pz  -0.39257
    1.3     2.00000  -104.57782     4  1  s    0.99403
    2.3     2.00000   -10.34972     4  1  s   -0.31276    4  2  s    1.02814
    3.3     2.00000    -7.82444     4  1  py   0.98239
    4.3     2.00000    -7.82105     4  1  pz   0.98277
    5.3     2.00000    -7.82088     2  1  py   0.98391
    6.3     2.00000    -2.39085     1  1  py   0.98787
    7.3     2.00000    -0.88553     4  2  s   -0.53297    4  3  s    0.70503    4  4  s    0.42398
    8.3     2.00000    -0.37528     1  1  d1-  0.34455    4  2  pz   0.38457    4  3  pz   0.52521
    9.3     2.00000    -0.33063     2  2  py  -0.28796    2  3  py  -0.39542    4  2  py   0.31826    4  3  py   0.42997
   10.3     2.00000    -0.24695     2  2  py   0.35688    2  3  py   0.52969    4  2  py   0.31916    4  3  py   0.47142
   11.3     1.38677    -0.15512     1  1  d1-  0.89941    4  3  pz  -0.39257
    1.4     2.00000    -7.82088     2  1  py   0.69569    4  1  px  -0.69569
    2.4     2.00000    -7.82086     2  1  py   0.69578    4  1  px   0.69578
    3.4     2.00000    -0.45805     1  1  d2- -0.36035    2  2  py  -0.26736    2  3  py  -0.33149    4  2  px  -0.26736
                                    4  3  px  -0.33149
    4.4     2.00000    -0.20676     2  2  py   0.35660    2  3  py   0.52988    4  2  px  -0.35660    4  3  px  -0.52988
    5.4     1.23047    -0.12902     1  1  d2-  0.90033    2  3  py  -0.30206    4  3  px  -0.30206
 
 Natural orbital dump (state averaged) at molpro section 2140.2 (Orbital set 2)
 
 Transform the CI vectors
 
 CI Coefficients of symmetry 1
 =============================
 
 aa 2 2 0      -0.00000000     -0.09150344      0.00000000      0.93610314
 2b a a a       0.81743485      0.00000000      0.28469311     -0.00000000
 2a a b a      -0.13946038     -0.69022117     -0.47418700     -0.01325721
 2a b a a      -0.13946038      0.69022117     -0.47418700      0.01325721
 2a a a b      -0.53851409      0.00000000      0.66368090     -0.00000000
 aa 0 2 2      -0.03347924     -0.13750168      0.11939091     -0.24560830
 aa 2 0 2       0.03347924     -0.13750168     -0.11939091     -0.24560830
 
 Energy:    -1946.92480840  -1946.90629754  -1946.90474064  -1946.87999567
 
 Transformation from determinants to CSFs

 Wavefunction saved on  5100.2
 
 CI Coefficients of symmetry 2
 =============================
 
 20 2 a a       0.75733025      0.64367839
 a0 a 2 2      -0.64981399      0.75647393
 ab 2 a a       0.03089802      0.07878137
 
 Energy:    -1947.10084241  -1947.07317545
 
 Transformation from determinants to CSFs

 Wavefunction saved on  5200.2
 
 CI Coefficients of symmetry 3
 =============================
 
 20 a 2 a       0.75733025      0.64367839
 a0 2 a 2      -0.64981399      0.75647393
 ab a 2 a      -0.03089802     -0.07878137
 
 Energy:    -1947.10084241  -1947.07317545
 
 Transformation from determinants to CSFs

 Wavefunction saved on  5300.2
 
 CI Coefficients of symmetry 4
 =============================
 
 20 a a 2       0.99841574     -0.00000000
 a0 2 2 a       0.00000000      0.99576207
 ab a a 2       0.00000000     -0.06293376
 
 Energy:    -1947.11697706  -1947.08772051
 
 Transformation from determinants to CSFs

 Wavefunction saved on  5400.2


 **********************************************************************************************************************************
 DATASETS  * FILE   NREC   LENGTH (MB)   RECORD NAMES
              1      19       29.05       500      610      700      900      950      970     1000      129      960     1100   
                                          VAR    BASINP    GEOM    SYMINP    ZMAT    AOBASIS   BASIS     P2S    ABASIS      S 
                                         1400     1410     1420     1200     1210     1080     1600     1650     1700   
                                           T        V       ECP      H0       H01     AOSYM     SMH    MOLCAS    OPER   

              2       9        1.43       700     1000      520     2100     2140     5100     5200     5300     5400   
                                         GEOM     BASIS   MCVARS     RHF     MCSCF    MRCI     MRCI     MRCI     MRCI   

 PROGRAMS   *        TOTAL DF-CASSCF    DF-RHF       INT
 CPU TIMES  *        25.66     17.91      7.39      0.23
 REAL TIME  *        54.23 SEC
 DISK USED  *       162.35 MB
 **********************************************************************************************************************************


 PROGRAM * CI (Multireference internally contracted CI)     Authors: H.-J. Werner, P.J. Knowles, 1987

                    Integral-direct implementation by R. Lindh, M. Schuetz, and H.-J. Werner, 1997

  *** ANISO information will be stored  to record   15789.2

  *** Warning: HLSTRANS set to 0 for ANISO

   ******************************
   *** Spin-orbit calculation ***
   ******************************


   Dumping SO-CI data to /home/linux1_i1/adam/Documents/tests/Molpro/magnetic_properties/simple_example_soci.hdf5

   Spin-orbit matrix elements
   ==========================

  

 PROGRAM * SEWLS (Spin-orbit & spin-spin integral evaluation)

 Modified from original SEWARD code by Alexander Mitrushchenkov

 Original version: December 2001, 2D-derivatives modifications: Stuttgart 2004
  

 Using One-Center approximation
  
 The following spin-orbit components are calculated:
  
    Operator      Symmetry
  
      LSX            3
      LSY            2
      LSZ            4
  
 Integral cutoff:   0.10E-09

 Time for Seward_LS:       0.11 sec

         136424. SPIN-ORBIT INTEGRALS WRITTEN OUT IN       35 RECORDS ON RECORD     11290 OF FILE 1


 CPU time:      0.11 sec, REAL time:      0.22 sec


 SORTLS1 read      136424. and wrote      136424. SO integrals in     3 records. CPU time:      0.00 sec, REAL time:      0.01 sec
 SORTLS2 read      136424. and wrote     5191696. SO integrals in     3 records. CPU time:      0.04 sec, REAL time:      0.12 sec

 FILE SIZES: FILE 1:    72.4 MBYTE, FILE 4:    12.6 MBYTE, TOTAL:    85.0 MBYTE

 Preparing effective Fock matrices
 Total X Y Z Fock matrices evaluated:     5    5    5
  
 Wavefunction restored from record  5100.2  Symmetry=1  S= 1.0  NSTATE=   4
 Wavefunction restored from record  5200.2  Symmetry=2  S= 1.0  NSTATE=   2
 Wavefunction restored from record  5300.2  Symmetry=3  S= 1.0  NSTATE=   2
 Wavefunction restored from record  5400.2  Symmetry=4  S= 1.0  NSTATE=   2



   Property matrices in the basis of the zeroth-order wave-functions
   =================================================================

 Property matrix for the DMX operator


   Nr  Nr'  State  S          1             2             3             4             5             6             7             8
    1   5    1.1  1.0     0.000000      0.000000      0.000000      0.000000     -0.063286     -0.057573      0.000000      0.000000
    2   6    2.1  1.0     0.000000      0.000000      0.000000      0.000000      0.055969      0.030752      0.000000      0.000000
    3   7    3.1  1.0     0.000000      0.000000      0.000000      0.000000     -0.058379     -0.034225      0.000000      0.000000
    4   8    4.1  1.0     0.000000      0.000000      0.000000      0.000000      0.015390     -0.016045      0.000000      0.000000
    5  15    1.2  1.0    -0.063286      0.055969     -0.058379      0.015390      0.000000      0.000000      0.000000      0.000000
    6  16    2.2  1.0    -0.057573      0.030752     -0.034225     -0.016045      0.000000      0.000000      0.000000      0.000000
    7  21    1.3  1.0     0.000000      0.000000      0.000000      0.000000      0.000000      0.000000      0.000000      0.000000
    8  22    2.3  1.0     0.000000      0.000000      0.000000      0.000000      0.000000      0.000000      0.000000      0.000000
    9  27    1.4  1.0     0.000000      0.000000      0.000000      0.000000      0.000000      0.000000      0.023241      0.013960
   10  28    2.4  1.0     0.000000      0.000000      0.000000      0.000000      0.000000      0.000000     -0.021134      0.028790

   Nr  Nr'  State  S          9            10
    1   5    1.1  1.0     0.000000      0.000000
    2   6    2.1  1.0     0.000000      0.000000
    3   7    3.1  1.0     0.000000      0.000000
    4   8    4.1  1.0     0.000000      0.000000
    5  15    1.2  1.0     0.000000      0.000000
    6  16    2.2  1.0     0.000000      0.000000
    7  21    1.3  1.0     0.023241     -0.021134
    8  22    2.3  1.0     0.013960      0.028790
    9  27    1.4  1.0     0.000000      0.000000
   10  28    2.4  1.0     0.000000      0.000000

                    0   0.0000000000000000     
                    1   0.0000000000000000     
                    2   0.0000000000000000     
                    3   0.0000000000000000     
                    4  -6.3286018193428883E-002
                    5  -5.7573245687953779E-002
                    6   0.0000000000000000     
                    7   0.0000000000000000     
                    8   0.0000000000000000     
                    9   0.0000000000000000     
                   10   0.0000000000000000     
                   11   0.0000000000000000     
                   12   0.0000000000000000     
                   13   0.0000000000000000     
                   14   5.5968949508600166E-002
                   15   3.0752066299200954E-002
                   16   0.0000000000000000     
                   17   0.0000000000000000     
                   18   0.0000000000000000     
                   19   0.0000000000000000     
                   20   0.0000000000000000     
                   21   0.0000000000000000     
                   22   0.0000000000000000     
                   23   0.0000000000000000     
                   24  -5.8378891389277571E-002
                   25  -3.4224904353430841E-002
                   26   0.0000000000000000     
                   27   0.0000000000000000     
                   28   0.0000000000000000     
                   29   0.0000000000000000     
                   30   0.0000000000000000     
                   31   0.0000000000000000     
                   32   0.0000000000000000     
                   33   0.0000000000000000     
                   34   1.5390168860441115E-002
                   35  -1.6045162754984431E-002
                   36   0.0000000000000000     
                   37   0.0000000000000000     
                   38   0.0000000000000000     
                   39   0.0000000000000000     
                   40  -6.3286018193428883E-002
                   41   5.5968949508600166E-002
                   42  -5.8378891389277571E-002
                   43   1.5390168860441115E-002
                   44   0.0000000000000000     
                   45   0.0000000000000000     
                   46   0.0000000000000000     
                   47   0.0000000000000000     
                   48   0.0000000000000000     
                   49   0.0000000000000000     
                   50  -5.7573245687953779E-002
                   51   3.0752066299200954E-002
                   52  -3.4224904353430841E-002
                   53  -1.6045162754984431E-002
                   54   0.0000000000000000     
                   55   0.0000000000000000     
                   56   0.0000000000000000     
                   57   0.0000000000000000     
                   58   0.0000000000000000     
                   59   0.0000000000000000     
                   60   0.0000000000000000     
                   61   0.0000000000000000     
                   62   0.0000000000000000     
                   63   0.0000000000000000     
                   64   0.0000000000000000     
                   65   0.0000000000000000     
                   66   0.0000000000000000     
                   67   0.0000000000000000     
                   68   2.3240883488628340E-002
                   69  -2.1133840784691611E-002
                   70   0.0000000000000000     
                   71   0.0000000000000000     
                   72   0.0000000000000000     
                   73   0.0000000000000000     
                   74   0.0000000000000000     
                   75   0.0000000000000000     
                   76   0.0000000000000000     
                   77   0.0000000000000000     
                   78   1.3959900071939105E-002
                   79   2.8790371033068599E-002
                   80   0.0000000000000000     
                   81   0.0000000000000000     
                   82   0.0000000000000000     
                   83   0.0000000000000000     
                   84   0.0000000000000000     
                   85   0.0000000000000000     
                   86   2.3240883488628340E-002
                   87   1.3959900071939105E-002
                   88   0.0000000000000000     
                   89   0.0000000000000000     
                   90   0.0000000000000000     
                   91   0.0000000000000000     
                   92   0.0000000000000000     
                   93   0.0000000000000000     
                   94   0.0000000000000000     
                   95   0.0000000000000000     
                   96  -2.1133840784691611E-002
                   97   2.8790371033068599E-002
                   98   0.0000000000000000     
                   99   0.0000000000000000     

 Property matrix for the DMY operator


   Nr  Nr'  State  S          1             2             3             4             5             6             7             8
    1   5    1.1  1.0     0.000000      0.000000      0.000000      0.000000      0.000000      0.000000     -0.063286     -0.057573
    2   6    2.1  1.0     0.000000      0.000000      0.000000      0.000000      0.000000      0.000000     -0.055969     -0.030752
    3   7    3.1  1.0     0.000000      0.000000      0.000000      0.000000      0.000000      0.000000     -0.058379     -0.034225
    4   8    4.1  1.0     0.000000      0.000000      0.000000      0.000000      0.000000      0.000000     -0.015390      0.016045
    5  15    1.2  1.0     0.000000      0.000000      0.000000      0.000000      0.000000      0.000000      0.000000      0.000000
    6  16    2.2  1.0     0.000000      0.000000      0.000000      0.000000      0.000000      0.000000      0.000000      0.000000
    7  21    1.3  1.0    -0.063286     -0.055969     -0.058379     -0.015390      0.000000      0.000000      0.000000      0.000000
    8  22    2.3  1.0    -0.057573     -0.030752     -0.034225      0.016045      0.000000      0.000000      0.000000      0.000000
    9  27    1.4  1.0     0.000000      0.000000      0.000000      0.000000     -0.023241     -0.013960      0.000000      0.000000
   10  28    2.4  1.0     0.000000      0.000000      0.000000      0.000000     -0.021134      0.028790      0.000000      0.000000

   Nr  Nr'  State  S          9            10
    1   5    1.1  1.0     0.000000      0.000000
    2   6    2.1  1.0     0.000000      0.000000
    3   7    3.1  1.0     0.000000      0.000000
    4   8    4.1  1.0     0.000000      0.000000
    5  15    1.2  1.0    -0.023241     -0.021134
    6  16    2.2  1.0    -0.013960      0.028790
    7  21    1.3  1.0     0.000000      0.000000
    8  22    2.3  1.0     0.000000      0.000000
    9  27    1.4  1.0     0.000000      0.000000
   10  28    2.4  1.0     0.000000      0.000000

                    0   0.0000000000000000     
                    1   0.0000000000000000     
                    2   0.0000000000000000     
                    3   0.0000000000000000     
                    4   0.0000000000000000     
                    5   0.0000000000000000     
                    6  -6.3286018193431035E-002
                    7  -5.7573245688000471E-002
                    8   0.0000000000000000     
                    9   0.0000000000000000     
                   10   0.0000000000000000     
                   11   0.0000000000000000     
                   12   0.0000000000000000     
                   13   0.0000000000000000     
                   14   0.0000000000000000     
                   15   0.0000000000000000     
                   16  -5.5968949508632328E-002
                   17  -3.0752066299256330E-002
                   18   0.0000000000000000     
                   19   0.0000000000000000     
                   20   0.0000000000000000     
                   21   0.0000000000000000     
                   22   0.0000000000000000     
                   23   0.0000000000000000     
                   24   0.0000000000000000     
                   25   0.0000000000000000     
                   26  -5.8378891389214690E-002
                   27  -3.4224904353441402E-002
                   28   0.0000000000000000     
                   29   0.0000000000000000     
                   30   0.0000000000000000     
                   31   0.0000000000000000     
                   32   0.0000000000000000     
                   33   0.0000000000000000     
                   34   0.0000000000000000     
                   35   0.0000000000000000     
                   36  -1.5390168860438360E-002
                   37   1.6045162754979921E-002
                   38   0.0000000000000000     
                   39   0.0000000000000000     
                   40   0.0000000000000000     
                   41   0.0000000000000000     
                   42   0.0000000000000000     
                   43   0.0000000000000000     
                   44   0.0000000000000000     
                   45   0.0000000000000000     
                   46   0.0000000000000000     
                   47   0.0000000000000000     
                   48  -2.3240883488598700E-002
                   49  -2.1133840784634091E-002
                   50   0.0000000000000000     
                   51   0.0000000000000000     
                   52   0.0000000000000000     
                   53   0.0000000000000000     
                   54   0.0000000000000000     
                   55   0.0000000000000000     
                   56   0.0000000000000000     
                   57   0.0000000000000000     
                   58  -1.3959900071957465E-002
                   59   2.8790371033102672E-002
                   60  -6.3286018193431035E-002
                   61  -5.5968949508632328E-002
                   62  -5.8378891389214690E-002
                   63  -1.5390168860438360E-002
                   64   0.0000000000000000     
                   65   0.0000000000000000     
                   66   0.0000000000000000     
                   67   0.0000000000000000     
                   68   0.0000000000000000     
                   69   0.0000000000000000     
                   70  -5.7573245688000471E-002
                   71  -3.0752066299256330E-002
                   72  -3.4224904353441402E-002
                   73   1.6045162754979921E-002
                   74   0.0000000000000000     
                   75   0.0000000000000000     
                   76   0.0000000000000000     
                   77   0.0000000000000000     
                   78   0.0000000000000000     
                   79   0.0000000000000000     
                   80   0.0000000000000000     
                   81   0.0000000000000000     
                   82   0.0000000000000000     
                   83   0.0000000000000000     
                   84  -2.3240883488598700E-002
                   85  -1.3959900071957465E-002
                   86   0.0000000000000000     
                   87   0.0000000000000000     
                   88   0.0000000000000000     
                   89   0.0000000000000000     
                   90   0.0000000000000000     
                   91   0.0000000000000000     
                   92   0.0000000000000000     
                   93   0.0000000000000000     
                   94  -2.1133840784634091E-002
                   95   2.8790371033102672E-002
                   96   0.0000000000000000     
                   97   0.0000000000000000     
                   98   0.0000000000000000     
                   99   0.0000000000000000     

 Property matrix for the DMZ operator


   Nr  Nr'  State  S          1             2             3             4             5             6             7             8
    1   5    1.1  1.0     0.083366      0.000000     -0.000643      0.000000      0.000000      0.000000      0.000000      0.000000
    2   6    2.1  1.0     0.000000      0.086735      0.000000      0.003483      0.000000      0.000000      0.000000      0.000000
    3   7    3.1  1.0    -0.000643      0.000000      0.085601      0.000000      0.000000      0.000000      0.000000      0.000000
    4   8    4.1  1.0     0.000000      0.003483      0.000000      0.118158      0.000000      0.000000      0.000000      0.000000
    5  15    1.2  1.0     0.000000      0.000000      0.000000      0.000000      0.052610     -0.042294      0.000000      0.000000
    6  16    2.2  1.0     0.000000      0.000000      0.000000      0.000000     -0.042294      0.066785      0.000000      0.000000
    7  21    1.3  1.0     0.000000      0.000000      0.000000      0.000000      0.000000      0.000000      0.052610     -0.042294
    8  22    2.3  1.0     0.000000      0.000000      0.000000      0.000000      0.000000      0.000000     -0.042294      0.066785
    9  27    1.4  1.0     0.000000      0.000000      0.000000      0.000000      0.000000      0.000000      0.000000      0.000000
   10  28    2.4  1.0     0.000000      0.000000      0.000000      0.000000      0.000000      0.000000      0.000000      0.000000

   Nr  Nr'  State  S          9            10
    1   5    1.1  1.0     0.000000      0.000000
    2   6    2.1  1.0     0.000000      0.000000
    3   7    3.1  1.0     0.000000      0.000000
    4   8    4.1  1.0     0.000000      0.000000
    5  15    1.2  1.0     0.000000      0.000000
    6  16    2.2  1.0     0.000000      0.000000
    7  21    1.3  1.0     0.000000      0.000000
    8  22    2.3  1.0     0.000000      0.000000
    9  27    1.4  1.0     0.045249      0.000000
   10  28    2.4  1.0     0.000000      0.073351

                    0   8.3366483091671370E-002
                    1   0.0000000000000000     
                    2  -6.4322782752050938E-004
                    3   0.0000000000000000     
                    4   0.0000000000000000     
                    5   0.0000000000000000     
                    6   0.0000000000000000     
                    7   0.0000000000000000     
                    8   0.0000000000000000     
                    9   0.0000000000000000     
                   10   0.0000000000000000     
                   11   8.6735175616885499E-002
                   12   0.0000000000000000     
                   13   3.4834836278895575E-003
                   14   0.0000000000000000     
                   15   0.0000000000000000     
                   16   0.0000000000000000     
                   17   0.0000000000000000     
                   18   0.0000000000000000     
                   19   0.0000000000000000     
                   20  -6.4322782752050938E-004
                   21   0.0000000000000000     
                   22   8.5601406125076260E-002
                   23   0.0000000000000000     
                   24   0.0000000000000000     
                   25   0.0000000000000000     
                   26   0.0000000000000000     
                   27   0.0000000000000000     
                   28   0.0000000000000000     
                   29   0.0000000000000000     
                   30   0.0000000000000000     
                   31   3.4834836278895575E-003
                   32   0.0000000000000000     
                   33  0.11815793313685627     
                   34   0.0000000000000000     
                   35   0.0000000000000000     
                   36   0.0000000000000000     
                   37   0.0000000000000000     
                   38   0.0000000000000000     
                   39   0.0000000000000000     
                   40   0.0000000000000000     
                   41   0.0000000000000000     
                   42   0.0000000000000000     
                   43   0.0000000000000000     
                   44   5.2609552292317119E-002
                   45  -4.2293792369054985E-002
                   46   0.0000000000000000     
                   47   0.0000000000000000     
                   48   0.0000000000000000     
                   49   0.0000000000000000     
                   50   0.0000000000000000     
                   51   0.0000000000000000     
                   52   0.0000000000000000     
                   53   0.0000000000000000     
                   54  -4.2293792369054985E-002
                   55   6.6785270412844891E-002
                   56   0.0000000000000000     
                   57   0.0000000000000000     
                   58   0.0000000000000000     
                   59   0.0000000000000000     
                   60   0.0000000000000000     
                   61   0.0000000000000000     
                   62   0.0000000000000000     
                   63   0.0000000000000000     
                   64   0.0000000000000000     
                   65   0.0000000000000000     
                   66   5.2609552292356199E-002
                   67  -4.2293792369072353E-002
                   68   0.0000000000000000     
                   69   0.0000000000000000     
                   70   0.0000000000000000     
                   71   0.0000000000000000     
                   72   0.0000000000000000     
                   73   0.0000000000000000     
                   74   0.0000000000000000     
                   75   0.0000000000000000     
                   76  -4.2293792369072353E-002
                   77   6.6785270412806699E-002
                   78   0.0000000000000000     
                   79   0.0000000000000000     
                   80   0.0000000000000000     
                   81   0.0000000000000000     
                   82   0.0000000000000000     
                   83   0.0000000000000000     
                   84   0.0000000000000000     
                   85   0.0000000000000000     
                   86   0.0000000000000000     
                   87   0.0000000000000000     
                   88   4.5249122880493424E-002
                   89   0.0000000000000000     
                   90   0.0000000000000000     
                   91   0.0000000000000000     
                   92   0.0000000000000000     
                   93   0.0000000000000000     
                   94   0.0000000000000000     
                   95   0.0000000000000000     
                   96   0.0000000000000000     
                   97   0.0000000000000000     
                   98   0.0000000000000000     
                   99   7.3350606084189099E-002

 Property matrix for the LX(RH) operator


   Nr  Nr'  State  S          1             2             3             4             5             6             7             8
    1   5    1.1  1.0     0.000000      0.000000      0.000000      0.000000      0.000000      0.000000      0.249949      0.298687
    2   6    2.1  1.0    -0.000000      0.000000      0.000000      0.000000      0.000000      0.000000      0.213675      0.137194
    3   7    3.1  1.0    -0.000000     -0.000000      0.000000      0.000000      0.000000      0.000000      0.199720      0.135240
    4   8    4.1  1.0    -0.000000     -0.000000     -0.000000      0.000000      0.000000      0.000000      0.051260     -0.068113
    5  15    1.2  1.0    -0.000000     -0.000000     -0.000000     -0.000000      0.000000      0.000000      0.000000      0.000000
    6  16    2.2  1.0    -0.000000     -0.000000     -0.000000     -0.000000     -0.000000      0.000000      0.000000      0.000000
    7  21    1.3  1.0    -0.249949     -0.213675     -0.199720     -0.051260     -0.000000     -0.000000      0.000000      0.000000
    8  22    2.3  1.0    -0.298687     -0.137194     -0.135240      0.068113     -0.000000     -0.000000     -0.000000      0.000000
    9  27    1.4  1.0    -0.000000     -0.000000     -0.000000     -0.000000     -1.462650      0.301752     -0.000000     -0.000000
   10  28    2.4  1.0    -0.000000     -0.000000     -0.000000     -0.000000      1.509975      0.085795     -0.000000     -0.000000

   Nr  Nr'  State  S          9            10
    1   5    1.1  1.0     0.000000      0.000000
    2   6    2.1  1.0     0.000000      0.000000
    3   7    3.1  1.0     0.000000      0.000000
    4   8    4.1  1.0     0.000000      0.000000
    5  15    1.2  1.0     1.462650     -1.509975
    6  16    2.2  1.0    -0.301752     -0.085795
    7  21    1.3  1.0     0.000000      0.000000
    8  22    2.3  1.0     0.000000      0.000000
    9  27    1.4  1.0     0.000000      0.000000
   10  28    2.4  1.0    -0.000000      0.000000

                    0   0.0000000000000000     
                    1  -0.0000000000000000     
                    2  -0.0000000000000000     
                    3  -0.0000000000000000     
                    4  -0.0000000000000000     
                    5  -0.0000000000000000     
                    6 -0.24994923474784778     
                    7 -0.29868695674770190     
                    8  -0.0000000000000000     
                    9  -0.0000000000000000     
                   10   0.0000000000000000     
                   11   0.0000000000000000     
                   12  -0.0000000000000000     
                   13  -0.0000000000000000     
                   14  -0.0000000000000000     
                   15  -0.0000000000000000     
                   16 -0.21367520385101141     
                   17 -0.13719424261435895     
                   18  -0.0000000000000000     
                   19  -0.0000000000000000     
                   20   0.0000000000000000     
                   21   0.0000000000000000     
                   22   0.0000000000000000     
                   23  -0.0000000000000000     
                   24  -0.0000000000000000     
                   25  -0.0000000000000000     
                   26 -0.19972004761858339     
                   27 -0.13524035048260044     
                   28  -0.0000000000000000     
                   29  -0.0000000000000000     
                   30   0.0000000000000000     
                   31   0.0000000000000000     
                   32   0.0000000000000000     
                   33   0.0000000000000000     
                   34  -0.0000000000000000     
                   35  -0.0000000000000000     
                   36  -5.1259660875493933E-002
                   37   6.8113121095835949E-002
                   38  -0.0000000000000000     
                   39  -0.0000000000000000     
                   40   0.0000000000000000     
                   41   0.0000000000000000     
                   42   0.0000000000000000     
                   43   0.0000000000000000     
                   44   0.0000000000000000     
                   45  -0.0000000000000000     
                   46  -0.0000000000000000     
                   47  -0.0000000000000000     
                   48  -1.4626497907423650     
                   49   1.5099748011009659     
                   50   0.0000000000000000     
                   51   0.0000000000000000     
                   52   0.0000000000000000     
                   53   0.0000000000000000     
                   54   0.0000000000000000     
                   55   0.0000000000000000     
                   56  -0.0000000000000000     
                   57  -0.0000000000000000     
                   58  0.30175157802891406     
                   59   8.5794980785100200E-002
                   60  0.24994923474784778     
                   61  0.21367520385101141     
                   62  0.19972004761858339     
                   63   5.1259660875493933E-002
                   64   0.0000000000000000     
                   65   0.0000000000000000     
                   66   0.0000000000000000     
                   67  -0.0000000000000000     
                   68  -0.0000000000000000     
                   69  -0.0000000000000000     
                   70  0.29868695674770190     
                   71  0.13719424261435895     
                   72  0.13524035048260044     
                   73  -6.8113121095835949E-002
                   74   0.0000000000000000     
                   75   0.0000000000000000     
                   76   0.0000000000000000     
                   77   0.0000000000000000     
                   78  -0.0000000000000000     
                   79  -0.0000000000000000     
                   80   0.0000000000000000     
                   81   0.0000000000000000     
                   82   0.0000000000000000     
                   83   0.0000000000000000     
                   84   1.4626497907423650     
                   85 -0.30175157802891406     
                   86   0.0000000000000000     
                   87   0.0000000000000000     
                   88   0.0000000000000000     
                   89  -0.0000000000000000     
                   90   0.0000000000000000     
                   91   0.0000000000000000     
                   92   0.0000000000000000     
                   93   0.0000000000000000     
                   94  -1.5099748011009659     
                   95  -8.5794980785100200E-002
                   96   0.0000000000000000     
                   97   0.0000000000000000     
                   98   0.0000000000000000     
                   99   0.0000000000000000     

 Property matrix for the LY(RH) operator


   Nr  Nr'  State  S          1             2             3             4             5             6             7             8
    1   5    1.1  1.0     0.000000      0.000000      0.000000      0.000000     -0.249949     -0.298687      0.000000      0.000000
    2   6    2.1  1.0    -0.000000      0.000000      0.000000      0.000000      0.213675      0.137194      0.000000      0.000000
    3   7    3.1  1.0    -0.000000     -0.000000      0.000000      0.000000     -0.199720     -0.135240      0.000000      0.000000
    4   8    4.1  1.0    -0.000000     -0.000000     -0.000000      0.000000      0.051260     -0.068113      0.000000      0.000000
    5  15    1.2  1.0     0.249949     -0.213675      0.199720     -0.051260      0.000000      0.000000      0.000000      0.000000
    6  16    2.2  1.0     0.298687     -0.137194      0.135240      0.068113     -0.000000      0.000000      0.000000      0.000000
    7  21    1.3  1.0    -0.000000     -0.000000     -0.000000     -0.000000     -0.000000     -0.000000      0.000000      0.000000
    8  22    2.3  1.0    -0.000000     -0.000000     -0.000000     -0.000000     -0.000000     -0.000000     -0.000000      0.000000
    9  27    1.4  1.0    -0.000000     -0.000000     -0.000000     -0.000000     -0.000000     -0.000000     -1.462650      0.301752
   10  28    2.4  1.0    -0.000000     -0.000000     -0.000000     -0.000000     -0.000000     -0.000000     -1.509975     -0.085795

   Nr  Nr'  State  S          9            10
    1   5    1.1  1.0     0.000000      0.000000
    2   6    2.1  1.0     0.000000      0.000000
    3   7    3.1  1.0     0.000000      0.000000
    4   8    4.1  1.0     0.000000      0.000000
    5  15    1.2  1.0     0.000000      0.000000
    6  16    2.2  1.0     0.000000      0.000000
    7  21    1.3  1.0     1.462650      1.509975
    8  22    2.3  1.0    -0.301752      0.085795
    9  27    1.4  1.0     0.000000      0.000000
   10  28    2.4  1.0    -0.000000      0.000000

                    0   0.0000000000000000     
                    1  -0.0000000000000000     
                    2  -0.0000000000000000     
                    3  -0.0000000000000000     
                    4  0.24994923474785638     
                    5  0.29868695674752060     
                    6  -0.0000000000000000     
                    7  -0.0000000000000000     
                    8  -0.0000000000000000     
                    9  -0.0000000000000000     
                   10   0.0000000000000000     
                   11   0.0000000000000000     
                   12  -0.0000000000000000     
                   13  -0.0000000000000000     
                   14 -0.21367520385088415     
                   15 -0.13719424261415941     
                   16  -0.0000000000000000     
                   17  -0.0000000000000000     
                   18  -0.0000000000000000     
                   19  -0.0000000000000000     
                   20   0.0000000000000000     
                   21   0.0000000000000000     
                   22   0.0000000000000000     
                   23  -0.0000000000000000     
                   24  0.19972004761883533     
                   25  0.13524035048256861     
                   26  -0.0000000000000000     
                   27  -0.0000000000000000     
                   28  -0.0000000000000000     
                   29  -0.0000000000000000     
                   30   0.0000000000000000     
                   31   0.0000000000000000     
                   32   0.0000000000000000     
                   33   0.0000000000000000     
                   34  -5.1259660875462555E-002
                   35   6.8113121095815674E-002
                   36  -0.0000000000000000     
                   37  -0.0000000000000000     
                   38  -0.0000000000000000     
                   39  -0.0000000000000000     
                   40 -0.24994923474785638     
                   41  0.21367520385088415     
                   42 -0.19972004761883533     
                   43   5.1259660875462555E-002
                   44   0.0000000000000000     
                   45  -0.0000000000000000     
                   46  -0.0000000000000000     
                   47  -0.0000000000000000     
                   48  -0.0000000000000000     
                   49  -0.0000000000000000     
                   50 -0.29868695674752060     
                   51  0.13719424261415941     
                   52 -0.13524035048256861     
                   53  -6.8113121095815674E-002
                   54   0.0000000000000000     
                   55   0.0000000000000000     
                   56  -0.0000000000000000     
                   57  -0.0000000000000000     
                   58  -0.0000000000000000     
                   59  -0.0000000000000000     
                   60   0.0000000000000000     
                   61   0.0000000000000000     
                   62   0.0000000000000000     
                   63   0.0000000000000000     
                   64   0.0000000000000000     
                   65   0.0000000000000000     
                   66   0.0000000000000000     
                   67  -0.0000000000000000     
                   68  -1.4626497907427258     
                   69  -1.5099748011009182     
                   70   0.0000000000000000     
                   71   0.0000000000000000     
                   72   0.0000000000000000     
                   73   0.0000000000000000     
                   74   0.0000000000000000     
                   75   0.0000000000000000     
                   76   0.0000000000000000     
                   77   0.0000000000000000     
                   78  0.30175157802834118     
                   79  -8.5794980785943983E-002
                   80   0.0000000000000000     
                   81   0.0000000000000000     
                   82   0.0000000000000000     
                   83   0.0000000000000000     
                   84   0.0000000000000000     
                   85   0.0000000000000000     
                   86   1.4626497907427258     
                   87 -0.30175157802834118     
                   88   0.0000000000000000     
                   89  -0.0000000000000000     
                   90   0.0000000000000000     
                   91   0.0000000000000000     
                   92   0.0000000000000000     
                   93   0.0000000000000000     
                   94   0.0000000000000000     
                   95   0.0000000000000000     
                   96   1.5099748011009182     
                   97   8.5794980785943983E-002
                   98   0.0000000000000000     
                   99   0.0000000000000000     

 Property matrix for the LZ(RH) operator


   Nr  Nr'  State  S          1             2             3             4             5             6             7             8
    1   5    1.1  1.0     0.000000      0.000000      0.000000      0.000000      0.000000      0.000000      0.000000      0.000000
    2   6    2.1  1.0    -0.000000      0.000000      0.000000      0.000000      0.000000      0.000000      0.000000      0.000000
    3   7    3.1  1.0    -0.000000     -0.000000      0.000000      0.000000      0.000000      0.000000      0.000000      0.000000
    4   8    4.1  1.0    -0.000000     -0.000000     -0.000000      0.000000      0.000000      0.000000      0.000000      0.000000
    5  15    1.2  1.0    -0.000000     -0.000000     -0.000000     -0.000000      0.000000      0.000000      0.145719      0.754901
    6  16    2.2  1.0    -0.000000     -0.000000     -0.000000     -0.000000     -0.000000      0.000000      0.754901     -0.216860
    7  21    1.3  1.0    -0.000000     -0.000000     -0.000000     -0.000000     -0.145719     -0.754901      0.000000      0.000000
    8  22    2.3  1.0    -0.000000     -0.000000     -0.000000     -0.000000     -0.754901      0.216860     -0.000000      0.000000
    9  27    1.4  1.0    -1.109915     -0.000000      0.315785     -0.000000     -0.000000     -0.000000     -0.000000     -0.000000
   10  28    2.4  1.0    -0.000000     -0.110081     -0.000000      0.762093     -0.000000     -0.000000     -0.000000     -0.000000

   Nr  Nr'  State  S          9            10
    1   5    1.1  1.0     1.109915      0.000000
    2   6    2.1  1.0     0.000000      0.110081
    3   7    3.1  1.0    -0.315785      0.000000
    4   8    4.1  1.0     0.000000     -0.762093
    5  15    1.2  1.0     0.000000      0.000000
    6  16    2.2  1.0     0.000000      0.000000
    7  21    1.3  1.0     0.000000      0.000000
    8  22    2.3  1.0     0.000000      0.000000
    9  27    1.4  1.0     0.000000      0.000000
   10  28    2.4  1.0    -0.000000      0.000000

                    0   0.0000000000000000     
                    1  -0.0000000000000000     
                    2  -0.0000000000000000     
                    3  -0.0000000000000000     
                    4  -0.0000000000000000     
                    5  -0.0000000000000000     
                    6  -0.0000000000000000     
                    7  -0.0000000000000000     
                    8  -1.1099145340696854     
                    9  -0.0000000000000000     
                   10   0.0000000000000000     
                   11   0.0000000000000000     
                   12  -0.0000000000000000     
                   13  -0.0000000000000000     
                   14  -0.0000000000000000     
                   15  -0.0000000000000000     
                   16  -0.0000000000000000     
                   17  -0.0000000000000000     
                   18  -0.0000000000000000     
                   19 -0.11008127798252930     
                   20   0.0000000000000000     
                   21   0.0000000000000000     
                   22   0.0000000000000000     
                   23  -0.0000000000000000     
                   24  -0.0000000000000000     
                   25  -0.0000000000000000     
                   26  -0.0000000000000000     
                   27  -0.0000000000000000     
                   28  0.31578506130974376     
                   29  -0.0000000000000000     
                   30   0.0000000000000000     
                   31   0.0000000000000000     
                   32   0.0000000000000000     
                   33   0.0000000000000000     
                   34  -0.0000000000000000     
                   35  -0.0000000000000000     
                   36  -0.0000000000000000     
                   37  -0.0000000000000000     
                   38  -0.0000000000000000     
                   39  0.76209253912379216     
                   40   0.0000000000000000     
                   41   0.0000000000000000     
                   42   0.0000000000000000     
                   43   0.0000000000000000     
                   44   0.0000000000000000     
                   45  -0.0000000000000000     
                   46 -0.14571856791155247     
                   47 -0.75490074263055829     
                   48  -0.0000000000000000     
                   49  -0.0000000000000000     
                   50   0.0000000000000000     
                   51   0.0000000000000000     
                   52   0.0000000000000000     
                   53   0.0000000000000000     
                   54   0.0000000000000000     
                   55   0.0000000000000000     
                   56 -0.75490074263026363     
                   57  0.21686031411011489     
                   58  -0.0000000000000000     
                   59  -0.0000000000000000     
                   60   0.0000000000000000     
                   61   0.0000000000000000     
                   62   0.0000000000000000     
                   63   0.0000000000000000     
                   64  0.14571856791155247     
                   65  0.75490074263026363     
                   66   0.0000000000000000     
                   67  -0.0000000000000000     
                   68  -0.0000000000000000     
                   69  -0.0000000000000000     
                   70   0.0000000000000000     
                   71   0.0000000000000000     
                   72   0.0000000000000000     
                   73   0.0000000000000000     
                   74  0.75490074263055829     
                   75 -0.21686031411011489     
                   76   0.0000000000000000     
                   77   0.0000000000000000     
                   78  -0.0000000000000000     
                   79  -0.0000000000000000     
                   80   1.1099145340696854     
                   81   0.0000000000000000     
                   82 -0.31578506130974376     
                   83   0.0000000000000000     
                   84   0.0000000000000000     
                   85   0.0000000000000000     
                   86   0.0000000000000000     
                   87   0.0000000000000000     
                   88   0.0000000000000000     
                   89  -0.0000000000000000     
                   90   0.0000000000000000     
                   91  0.11008127798252930     
[...]
            | x |    1.118682    0.000000    0.000000 |  X:    1.006932 | -0.00000000 -0.00000000  1.00000000 |
 300.000000 | y |    0.000000    1.118331    0.000000 |  Y:    1.118331 | -0.00000000  1.00000000  0.00000000 |
            | z |    0.000000    0.000000    1.006932 |  Z:    1.118682 | -1.00000000 -0.00000000 -0.00000000 |
--------------------------------------------------------------------------------------------------------------|

%%%%%%%%%%%%%%%%%%%%%%%%%%%%%%%%%%%%%%%%%%%%%%%%%%%%%%%%%%%%%%%%%%%%%%%%%%%%%%%%%%%%%%%%%%%%%%%%
                                        CALCULATION OF THE MOLAR MAGNETIZATION
%%%%%%%%%%%%%%%%%%%%%%%%%%%%%%%%%%%%%%%%%%%%%%%%%%%%%%%%%%%%%%%%%%%%%%%%%%%%%%%%%%%%%%%%%%%%%%%%

  Molar magnetization will be calculated in  11 points, equally distributed in magnetic field range
   0.0 -- 10.0 T., at the following temperatures:
  2.0000 K.;
  Powder molar magnetization will be averaged on  185 directions of the applied magnetic field.
  --------------------------------------------------------------------------------
                       Lebedev-Laikov grid on a hemisphere:
                                      z >= 0;
  --------------------------------------------------------------------------------
  Nr.            x                  y                  z                weight
   1      1.000000000000     0.000000000000     0.000000000000     0.003006796749
   2     -1.000000000000     0.000000000000     0.000000000000     0.003006796749
   3      0.000000000000     1.000000000000     0.000000000000     0.003006796749
   4      0.000000000000    -1.000000000000     0.000000000000     0.003006796749
   5      0.000000000000     0.000000000000     1.000000000000     0.006013593499
   6      0.577350269190     0.577350269190     0.577350269190     0.006101255491
   7     -0.577350269190     0.577350269190     0.577350269190     0.006101255491
   8      0.577350269190    -0.577350269190     0.577350269190     0.006101255491
   9     -0.577350269190    -0.577350269190     0.577350269190     0.006101255491
  10      0.706896546391     0.706896546391     0.024383301669     0.003242209201
  11     -0.706896546391     0.706896546391     0.024383301669     0.003242209201
  12      0.706896546391    -0.706896546391     0.024383301669     0.003242209201
  13     -0.706896546391    -0.706896546391     0.024383301669     0.003242209201
  14      0.706896546391     0.024383301669     0.706896546391     0.003242209201
  15     -0.706896546391     0.024383301669     0.706896546391     0.003242209201
  16      0.706896546391    -0.024383301669     0.706896546391     0.003242209201
  17     -0.706896546391    -0.024383301669     0.706896546391     0.003242209201
  18      0.024383301669     0.706896546391     0.706896546391     0.003242209201
  19     -0.024383301669     0.706896546391     0.706896546391     0.003242209201
  20      0.024383301669    -0.706896546391     0.706896546391     0.003242209201
  21     -0.024383301669    -0.706896546391     0.706896546391     0.003242209201
  22      0.479468262571     0.479468262571     0.734996850588     0.006011402970
  23     -0.479468262571     0.479468262571     0.734996850588     0.006011402970
  24      0.479468262571    -0.479468262571     0.734996850588     0.006011402970
  25     -0.479468262571    -0.479468262571     0.734996850588     0.006011402970
  26      0.479468262571     0.734996850588     0.479468262571     0.006011402970
  27     -0.479468262571     0.734996850588     0.479468262571     0.006011402970
  28      0.479468262571    -0.734996850588     0.479468262571     0.006011402970
  29     -0.479468262571    -0.734996850588     0.479468262571     0.006011402970
  30      0.734996850588     0.479468262571     0.479468262571     0.006011402970
  31     -0.734996850588     0.479468262571     0.479468262571     0.006011402970
  32      0.734996850588    -0.479468262571     0.479468262571     0.006011402970
  33     -0.734996850588    -0.479468262571     0.479468262571     0.006011402970
  34      0.192753315488     0.192753315488     0.962129055136     0.005981985059
  35     -0.192753315488     0.192753315488     0.962129055136     0.005981985059
  36      0.192753315488    -0.192753315488     0.962129055136     0.005981985059
  37     -0.192753315488    -0.192753315488     0.962129055136     0.005981985059
  38      0.192753315488     0.962129055136     0.192753315488     0.005981985059
  39     -0.192753315488     0.962129055136     0.192753315488     0.005981985059
  40      0.192753315488    -0.962129055136     0.192753315488     0.005981985059
  41     -0.192753315488    -0.962129055136     0.192753315488     0.005981985059
  42      0.962129055136     0.192753315488     0.192753315488     0.005981985059
  43     -0.962129055136     0.192753315488     0.192753315488     0.005981985059
  44      0.962129055136    -0.192753315488     0.192753315488     0.005981985059
  45     -0.962129055136    -0.192753315488     0.192753315488     0.005981985059
  46      0.693035796133     0.693035796133     0.198501311223     0.005964341288
  47     -0.693035796133     0.693035796133     0.198501311223     0.005964341288
  48      0.693035796133    -0.693035796133     0.198501311223     0.005964341288
  49     -0.693035796133    -0.693035796133     0.198501311223     0.005964341288
  50      0.693035796133     0.198501311223     0.693035796133     0.005964341288
  51     -0.693035796133     0.198501311223     0.693035796133     0.005964341288
  52      0.693035796133    -0.198501311223     0.693035796133     0.005964341288
  53     -0.693035796133    -0.198501311223     0.693035796133     0.005964341288
  54      0.198501311223     0.693035796133     0.693035796133     0.005964341288
  55     -0.198501311223     0.693035796133     0.693035796133     0.005964341288
  56      0.198501311223    -0.693035796133     0.693035796133     0.005964341288
  57     -0.198501311223    -0.693035796133     0.693035796133     0.005964341288
  58      0.360830211552     0.360830211552     0.860001812128     0.005443128475
  59     -0.360830211552     0.360830211552     0.860001812128     0.005443128475
  60      0.360830211552    -0.360830211552     0.860001812128     0.005443128475
  61     -0.360830211552    -0.360830211552     0.860001812128     0.005443128475
  62      0.360830211552     0.860001812128     0.360830211552     0.005443128475
  63     -0.360830211552     0.860001812128     0.360830211552     0.005443128475
  64      0.360830211552    -0.860001812128     0.360830211552     0.005443128475
  65     -0.360830211552    -0.860001812128     0.360830211552     0.005443128475
  66      0.860001812128     0.360830211552     0.360830211552     0.005443128475
  67     -0.860001812128     0.360830211552     0.360830211552     0.005443128475
  68      0.860001812128    -0.360830211552     0.360830211552     0.005443128475
  69     -0.860001812128    -0.360830211552     0.360830211552     0.005443128475
  70      0.649848616150     0.649848616150     0.394199888606     0.006067027592
  71     -0.649848616150     0.649848616150     0.394199888606     0.006067027592
  72      0.649848616150    -0.649848616150     0.394199888606     0.006067027592
  73     -0.649848616150    -0.649848616150     0.394199888606     0.006067027592
  74      0.649848616150     0.394199888606     0.649848616150     0.006067027592
  75     -0.649848616150     0.394199888606     0.649848616150     0.006067027592
  76      0.649848616150    -0.394199888606     0.649848616150     0.006067027592
  77     -0.649848616150    -0.394199888606     0.649848616150     0.006067027592
  78      0.394199888606     0.649848616150     0.649848616150     0.006067027592
  79     -0.394199888606     0.649848616150     0.649848616150     0.006067027592
  80      0.394199888606    -0.649848616150     0.649848616150     0.006067027592
  81     -0.394199888606    -0.649848616150     0.649848616150     0.006067027592
  82      0.193294501323     0.981140782843     0.000000000000     0.003007949555
  83     -0.193294501323     0.981140782843     0.000000000000     0.003007949555
  84      0.193294501323    -0.981140782843     0.000000000000     0.003007949555
  85     -0.193294501323    -0.981140782843     0.000000000000     0.003007949555
  86      0.981140782843     0.193294501323     0.000000000000     0.003007949555
  87     -0.981140782843     0.193294501323     0.000000000000     0.003007949555
  88      0.981140782843    -0.193294501323     0.000000000000     0.003007949555
  89     -0.981140782843    -0.193294501323     0.000000000000     0.003007949555
  90      0.193294501323     0.000000000000     0.981140782843     0.006015899110
  91     -0.193294501323     0.000000000000     0.981140782843     0.006015899110
  92      0.981140782843     0.000000000000     0.193294501323     0.006015899110
  93     -0.981140782843     0.000000000000     0.193294501323     0.006015899110
  94      0.000000000000     0.193294501323     0.981140782843     0.006015899110
  95      0.000000000000    -0.193294501323     0.981140782843     0.006015899110
  96      0.000000000000     0.981140782843     0.193294501323     0.006015899110
  97      0.000000000000    -0.981140782843     0.193294501323     0.006015899110
  98      0.380049491990     0.924966152699     0.000000000000     0.002881964603
  99     -0.380049491990     0.924966152699     0.000000000000     0.002881964603
 100      0.380049491990    -0.924966152699     0.000000000000     0.002881964603
 101     -0.380049491990    -0.924966152699     0.000000000000     0.002881964603
 102      0.924966152699     0.380049491990     0.000000000000     0.002881964603
 103     -0.924966152699     0.380049491990     0.000000000000     0.002881964603
 104      0.924966152699    -0.380049491990     0.000000000000     0.002881964603
 105     -0.924966152699    -0.380049491990     0.000000000000     0.002881964603
 106      0.380049491990     0.000000000000     0.924966152699     0.005763929206
 107     -0.380049491990     0.000000000000     0.924966152699     0.005763929206
 108      0.924966152699     0.000000000000     0.380049491990     0.005763929206
 109     -0.924966152699     0.000000000000     0.380049491990     0.005763929206
 110      0.000000000000     0.380049491990     0.924966152699     0.005763929206
 111      0.000000000000    -0.380049491990     0.924966152699     0.005763929206
 112      0.000000000000     0.924966152699     0.380049491990     0.005763929206
 113      0.000000000000    -0.924966152699     0.380049491990     0.005763929206
 114      0.289955882550     0.793453785658     0.535123047718     0.005916715253
 115     -0.289955882550     0.793453785658     0.535123047718     0.005916715253
 116      0.289955882550    -0.793453785658     0.535123047718     0.005916715253
 117     -0.289955882550    -0.793453785658     0.535123047718     0.005916715253
 118      0.289955882550     0.535123047718     0.793453785658     0.005916715253
 119     -0.289955882550     0.535123047718     0.793453785658     0.005916715253
 120      0.289955882550    -0.535123047718     0.793453785658     0.005916715253
 121     -0.289955882550    -0.535123047718     0.793453785658     0.005916715253
 122      0.793453785658     0.289955882550     0.535123047718     0.005916715253
 123     -0.793453785658     0.289955882550     0.535123047718     0.005916715253
 124      0.793453785658    -0.289955882550     0.535123047718     0.005916715253
 125     -0.793453785658    -0.289955882550     0.535123047718     0.005916715253
 126      0.793453785658     0.535123047718     0.289955882550     0.005916715253
 127     -0.793453785658     0.535123047718     0.289955882550     0.005916715253
 128      0.793453785658    -0.535123047718     0.289955882550     0.005916715253
 129     -0.793453785658    -0.535123047718     0.289955882550     0.005916715253
 130      0.535123047718     0.289955882550     0.793453785658     0.005916715253
 131     -0.535123047718     0.289955882550     0.793453785658     0.005916715253
 132      0.535123047718    -0.289955882550     0.793453785658     0.005916715253
 133     -0.535123047718    -0.289955882550     0.793453785658     0.005916715253
 134      0.535123047718     0.793453785658     0.289955882550     0.005916715253
 135     -0.535123047718     0.793453785658     0.289955882550     0.005916715253
 136      0.535123047718    -0.793453785658     0.289955882550     0.005916715253
 137     -0.535123047718    -0.793453785658     0.289955882550     0.005916715253
 138      0.096841214551     0.828080150669     0.552182074349     0.006072040053
 139     -0.096841214551     0.828080150669     0.552182074349     0.006072040053
 140      0.096841214551    -0.828080150669     0.552182074349     0.006072040053
 141     -0.096841214551    -0.828080150669     0.552182074349     0.006072040053
 142      0.096841214551     0.552182074349     0.828080150669     0.006072040053
 143     -0.096841214551     0.552182074349     0.828080150669     0.006072040053
 144      0.096841214551    -0.552182074349     0.828080150669     0.006072040053
 145     -0.096841214551    -0.552182074349     0.828080150669     0.006072040053
 146      0.828080150669     0.096841214551     0.552182074349     0.006072040053
 147     -0.828080150669     0.096841214551     0.552182074349     0.006072040053
 148      0.828080150669    -0.096841214551     0.552182074349     0.006072040053
 149     -0.828080150669    -0.096841214551     0.552182074349     0.006072040053
 150      0.828080150669     0.552182074349     0.096841214551     0.006072040053
 151     -0.828080150669     0.552182074349     0.096841214551     0.006072040053
 152      0.828080150669    -0.552182074349     0.096841214551     0.006072040053
 153     -0.828080150669    -0.552182074349     0.096841214551     0.006072040053
 154      0.552182074349     0.096841214551     0.828080150669     0.006072040053
 155     -0.552182074349     0.096841214551     0.828080150669     0.006072040053
 156      0.552182074349    -0.096841214551     0.828080150669     0.006072040053
 157     -0.552182074349    -0.096841214551     0.828080150669     0.006072040053
 158      0.552182074349     0.828080150669     0.096841214551     0.006072040053
 159     -0.552182074349     0.828080150669     0.096841214551     0.006072040053
 160      0.552182074349    -0.828080150669     0.096841214551     0.006072040053
 161     -0.552182074349    -0.828080150669     0.096841214551     0.006072040053
 162      0.183343464704     0.907465826531     0.378009189874     0.005664374808
 163     -0.183343464704     0.907465826531     0.378009189874     0.005664374808
 164      0.183343464704    -0.907465826531     0.378009189874     0.005664374808
 165     -0.183343464704    -0.907465826531     0.378009189874     0.005664374808
 166      0.183343464704     0.378009189874     0.907465826531     0.005664374808
 167     -0.183343464704     0.378009189874     0.907465826531     0.005664374808
 168      0.183343464704    -0.378009189874     0.907465826531     0.005664374808
 169     -0.183343464704    -0.378009189874     0.907465826531     0.005664374808
 170      0.907465826531     0.183343464704     0.378009189874     0.005664374808
 171     -0.907465826531     0.183343464704     0.378009189874     0.005664374808
 172      0.907465826531    -0.183343464704     0.378009189874     0.005664374808
 173     -0.907465826531    -0.183343464704     0.378009189874     0.005664374808
 174      0.907465826531     0.378009189874     0.183343464704     0.005664374808
 175     -0.907465826531     0.378009189874     0.183343464704     0.005664374808
 176      0.907465826531    -0.378009189874     0.183343464704     0.005664374808
 177     -0.907465826531    -0.378009189874     0.183343464704     0.005664374808
 178      0.378009189874     0.183343464704     0.907465826531     0.005664374808
 179     -0.378009189874     0.183343464704     0.907465826531     0.005664374808
 180      0.378009189874    -0.183343464704     0.907465826531     0.005664374808
 181     -0.378009189874    -0.183343464704     0.907465826531     0.005664374808
 182      0.378009189874     0.907465826531     0.183343464704     0.005664374808
 183     -0.378009189874     0.907465826531     0.183343464704     0.005664374808
 184      0.378009189874    -0.907465826531     0.183343464704     0.005664374808
 185     -0.378009189874    -0.907465826531     0.183343464704     0.005664374808
  --------------------------------------------------------------------------------
                       Zeeman energy splitting and magnetization vector will be computed
  --------------------------------------------------------------------------------
  Nr.            x                  y                  z
  --------------------------------------------------------------------------------
  The cut-off energy for the exact diagonalization of the Zeeman Hamiltonian is:
  E = 52012.460100116 cm(-1).
  The exact diagonalization of the Zeeman Hamiltonian included  30 exchange states.
  The Zeeman splitting and magnetization vector for  0 directions of the applied magnetic field will be calculated.
  The Zeeman energies for each direction of the applied magnetic field are written in files "zeeman_energy_xxx.txt".
Energies of the Zeeman Hamiltonian for the following directions of the applied field:

                         HIGH-FIELD POWDER MAGNETIZATION
                              (Units: Bohr magneton)

-----------|---------------|---------------|
   H(T)    |STATISTICAL SUM|     2.000 K.  |
-----------|---------------|---------------|
  0.000100 | 2.7332908E+00 |  0.0000908707 |
  1.000000 | 1.7303759E+00 |  0.8458176568 |
  2.000000 | 1.3074545E+00 |  1.4191903306 |
  3.000000 | 1.1395806E+00 |  1.7246302276 |
  4.000000 | 1.0665787E+00 |  1.8737948074 |
  5.000000 | 1.0326847E+00 |  1.9461642630 |
  6.000000 | 1.0162996E+00 |  1.9818940693 |
  7.000000 | 1.0081961E+00 |  1.9998920014 |
  8.000000 | 1.0041390E+00 |  2.0091440485 |
  9.000000 | 1.0020947E+00 |  2.0140228731 |
 10.000000 | 1.0010613E+00 |  2.0166966219 |
-----------|---------------|---------------|


 **********************************************************************************************************************************
 DATASETS  * FILE   NREC   LENGTH (MB)   RECORD NAMES
              1      27       69.04       500      610      700      900      950      970     1000      129      960     1100   
                                          VAR    BASINP    GEOM    SYMINP    ZMAT    AOBASIS   BASIS     P2S    ABASIS      S 
                                         1400     1410     1420     1200     1210     1080     1600     1650     1700     1101   
                                         EKIN      POT     PPINT     H0       H01     AOSYM     SMH    MOLCAS    OPER      SR  
                                         1401     1411     1650(1)  1700(1)  1311     1312     1313   
                                         EKINR    POTR    MOLCAS    OPER     LSX2     LSY2     LSZ2   

              2      10        1.48       700     1000      520     2100     2140     5100     5200     5300     5400    15789   
                                         GEOM     BASIS   MCVARS     RHF     MCSCF    MRCI     MRCI     MRCI     MRCI     ANISO   

 PROGRAMS   *        TOTALSINGLE_ANI        CI DF-CASSCF    DF-RHF       INT
 CPU TIMES  *        27.28      0.70      0.92     17.91      7.39      0.23
 REAL TIME  *        62.03 SEC
 DISK USED  *       162.35 MB
 **********************************************************************************************************************************

              CI       DF-CASSCF          DF-RHF
    598.22773082  -1947.08772051  -1946.93986943
 **********************************************************************************************************************************
 Molpro calculation terminated
